ITEM: TIMESTEP
0
ITEM: NUMBER OF ATOMS
1500
ITEM: BOX BOUNDS xy xz yz pp pp pp
1.9965105257295690e-01 2.4800348947432184e+01 0.0000000000000000e+00
1.9965105257295690e-01 2.4800348947432184e+01 0.0000000000000000e+00
1.9965105257295690e-01 2.4800348947432184e+01 0.0000000000000000e+00
ITEM: ATOMS id type x y z
1 1 8.27077 11.816 22.1533
2 2 7.91854 12.2522 22.9353
3 2 9.14344 11.3408 22.4368
4 1 23.2016 24.5591 15.9855
5 2 23.9967 24.244 15.5181
6 2 22.6833 0.277346 15.1975
7 1 3.64851 4.10811 16.9493
8 2 3.76037 3.87571 17.8585
9 2 3.11241 3.42886 16.5879
10 1 24.0621 13.8246 20.2018
11 2 23.5691 13.0302 20.1812
12 2 24.7341 13.7803 20.9688
13 1 23.8746 19.0766 22.8624
14 2 24.3672 18.441 22.3452
15 2 22.922 18.769 22.8115
16 1 13.6056 23.4445 14.3798
17 2 13.4592 23.4945 13.4542
18 2 12.8073 23.8504 14.7671
19 1 3.13581 9.08843 9.29527
20 2 3.9177 8.97382 9.93065
21 2 2.61839 8.25607 9.44802
22 1 22.4642 7.7553 12.8118
23 2 22.7894 7.0371 13.3779
24 2 21.94 8.44422 13.1885
25 1 17.2991 3.80332 5.60014
26 2 16.9046 3.20771 4.92605
27 2 18.2391 3.82453 5.40677
28 1 16.2243 10.9393 9.97257
29 2 16.6798 11.774 9.87874
30 2 16.6803 10.536 10.7633
31 1 8.71122 24.1868 8.08954
32 2 8.6284 23.5975 7.20752
33 2 9.46581 0.224566 7.87124
34 1 10.6939 10.8998 23.0318
35 2 10.4942 10.9821 24.0053
36 2 10.997 9.96056 22.8375
37 1 7.70915 6.05132 24.1541
38 2 8.2714 5.29848 24.1244
39 2 6.89283 5.69844 24.4853
40 1 20.2514 7.35791 19.9833
41 2 19.4987 7.05276 20.5088
42 2 20.1287 6.91528 19.1177
43 1 11.3605 1.07057 12.4733
44 2 12.0177 1.78449 12.3252
45 2 11.7804 0.247663 12.1839
46 1 7.49563 3.46285 20.1905
47 2 8.13604 3.36636 19.4794
48 2 7.47745 4.34064 20.5362
49 1 21.0087 23.2458 8.66226
50 2 20.6906 23.63 7.75944
51 2 21.8834 22.7614 8.52516
52 1 12.1611 6.03119 17.2747
53 2 12.5389 6.95868 17.3355
54 2 12.0362 5.7714 16.3642
55 1 6.09787 21.5022 8.46139
56 2 6.44664 22.0294 9.20535
57 2 5.12175 21.481 8.63579
58 1 15.7752 0.836588 19.231
59 2 15.4592 1.06116 18.3412
60 2 16.2402 24.5383 19.1929
61 1 11.7407 0.68443 15.3315
62 2 12.459 1.32349 15.519
63 2 11.3602 0.90866 14.4499
64 1 8.4365 2.55392 6.28545
65 2 9.27283 2.50634 6.81891
66 2 8.53299 1.81303 5.65718
67 1 22.486 15.6462 6.90665
68 2 23.252 15.0628 6.87363
69 2 22.4591 16.212 6.16034
70 1 4.38709 22.8046 15.3906
71 2 3.90633 22.6996 14.5379
72 2 3.86743 22.4816 16.1664
73 1 6.8227 17.4091 23.2639
74 2 7.23836 18.2584 23.3273
75 2 6.20644 17.3855 22.5581
76 1 19.4015 18.8414 14.3282
77 2 20.1081 18.7344 14.9583
78 2 18.7346 19.0109 15.001
79 1 20.8942 3.10716 12.8164
80 2 20.5381 2.24318 13.1896
81 2 21.5627 3.34762 13.5449
82 1 4.76788 16.0323 18.2553
83 2 4.47776 15.1507 18.5939
84 2 5.51639 15.7716 17.6981
85 1 21.9894 17.1558 17.2298
86 2 22.7757 16.5545 17.1303
87 2 21.185 16.5774 17.2545
88 1 9.16253 23.8412 2.93027
89 2 8.62815 23.0857 3.2989
90 2 9.55401 23.5239 2.11574
91 1 22.0703 15.8459 19.8193
92 2 22.402 16.3775 19.0615
93 2 22.799 15.2064 19.969
94 1 6.35278 17.255 20.0825
95 2 6.25131 18.1944 19.9057
96 2 5.59988 16.7992 19.5815
97 1 12.3335 14.399 14.8327
98 2 12.6111 14.7857 13.9765
99 2 12.3029 13.4294 14.7128
100 1 18.7008 10.977 18.1505
101 2 18.4669 11.7495 17.5162
102 2 18.9305 11.3319 19.0253
103 1 3.82332 14.0143 6.67713
104 2 3.68741 13.8477 7.57736
105 2 4.42732 13.3187 6.36613
106 1 11.9404 21.9861 7.83472
107 2 11.0693 21.4874 7.7407
108 2 12.3711 21.5511 8.72398
109 1 16.6979 3.12981 20.1878
110 2 16.1945 2.40685 19.7857
111 2 16.255 3.23404 21.053
112 1 21.8348 22.277 0.788168
113 2 21.4143 21.537 1.27435
114 2 22.7793 22.1566 0.881869
115 1 14.7516 8.20372 5.39021
116 2 15.3134 8.52661 6.11588
117 2 14.9683 7.24369 5.31606
118 1 19.3442 22.6553 10.6476
119 2 18.5723 22.2669 10.2353
120 2 19.8947 23.1577 10.0638
121 1 9.84722 8.37329 5.271
122 2 10.7492 8.61821 5.64026
123 2 10.0464 7.89561 4.44651
124 1 9.53029 8.84771 8.78476
125 2 10.1257 8.25449 8.28259
126 2 9.06657 8.42595 9.55415
127 1 7.03941 17.8276 14.3947
128 2 7.36872 18.4652 15.0618
129 2 6.09418 17.8064 14.4723
130 1 3.55188 0.933985 21.4015
131 2 3.8447 0.969974 22.3115
132 2 4.37548 0.944985 20.8193
133 1 7.5908 12.8566 18.0479
134 2 8.22598 12.6416 17.2377
135 2 8.14648 13.3462 18.6966
136 1 18.5761 2.48092 1.62134
137 2 18.8535 3.39076 1.33465
138 2 17.6269 2.62866 1.7333
139 1 0.85609 11.898 5.18632
140 2 1.39516 12.2017 4.40371
141 2 0.27241 11.2667 4.75414
142 1 4.55641 3.89027 19.6254
143 2 3.78997 3.88102 20.2067
144 2 4.92456 3.03065 19.7244
145 1 10.6174 2.15848 7.73466
146 2 10.789 1.28249 7.33414
147 2 10.5039 2.04032 8.7207
148 1 9.31893 15.4234 2.13138
149 2 9.8227 16.2054 1.96963
150 2 8.99806 15.5328 3.0516
151 1 10.4509 9.25797 16.9849
152 2 10.4059 9.01954 17.9002
153 2 11.3416 9.36998 16.7459
154 1 8.52607 13.5554 5.93704
155 2 8.12632 14.2824 5.47488
156 2 8.33153 13.6395 6.89179
157 1 22.3983 21.0279 20.2938
158 2 22.0421 21.2366 21.1966
159 2 22.6834 21.9476 19.9975
160 1 4.75955 19.0877 2.8978
161 2 4.19666 19.8349 3.08011
162 2 4.77173 19.1772 1.9039
163 1 15.669 3.05984 1.52031
164 2 15.4317 2.51104 0.767608
165 2 16.0608 3.88286 1.1492
166 1 20.5869 13.1909 2.33938
167 2 20.4946 14.1601 2.46766
168 2 19.9097 12.7382 2.95653
169 1 10.711 11.4438 9.71989
170 2 10.2158 12.0192 9.07738
171 2 10.3905 10.5036 9.68498
172 1 21.2178 19.5608 1.19421
173 2 20.785 19.3694 0.326168
174 2 21.9593 19.0027 1.37029
175 1 12.9945 10.4332 21.2056
176 2 12.057 10.6364 21.3594
177 2 13.3776 11.3183 20.84
178 1 14.8456 16.9126 23.8293
179 2 15.7249 17.0982 23.2858
180 2 15.1181 16.5092 24.6862
181 1 16.6757 3.93662 12.7371
182 2 17.4583 4.34142 13.0468
183 2 16.0523 4.68289 12.6271
184 1 16.8927 21.3501 9.85335
185 2 16.1677 21.6149 9.27429
186 2 16.6622 21.4358 10.7627
187 1 5.42358 0.897659 19.5068
188 2 5.89604 24.6971 19.8398
189 2 6.13893 1.31286 18.9453
190 1 4.85169 5.56287 0.776708
191 2 4.95092 4.6421 0.50664
192 2 5.1151 5.7183 1.67938
193 1 6.20293 12.9473 2.53906
194 2 5.53209 12.3085 2.22502
195 2 6.7926 13.2603 1.82051
196 1 22.2034 8.5327 21.7528
197 2 22.9428 8.08586 21.312
198 2 21.3588 8.23223 21.2361
199 1 6.03292 9.16879 13.8115
200 2 6.58085 9.85784 14.2097
201 2 5.21704 9.16526 14.3337
202 1 22.1914 17.2545 3.83743
203 2 21.7873 17.0418 2.95664
204 2 21.7556 18.0128 4.25572
205 1 9.31601 18.9151 5.83032
206 2 8.88848 18.8 4.93832
207 2 9.58315 18.0385 6.13603
208 1 6.8271 22.2169 22.2523
209 2 6.06804 22.8326 22.6024
210 2 6.35866 21.5187 21.8327
211 1 24.5597 11.3473 14.3042
212 2 24.6941 10.7025 13.6527
213 2 0.774037 11.8264 14.4649
214 1 7.914 19.8188 23.2317
215 2 7.6625 20.6367 22.8981
216 2 8.84412 19.6843 23.057
217 1 3.64635 20.9594 9.64033
218 2 3.73345 20.8866 10.6158
219 2 2.74867 20.9692 9.3145
220 1 20.2819 8.24551 4.90233
221 2 20.4119 8.31317 5.87479
222 2 19.2712 8.24417 4.91018
223 1 3.30692 23.1911 20.2886
224 2 3.53532 24.1131 20.5729
225 2 4.04669 22.5877 20.5478
226 1 17.868 7.34225 9.2775
227 2 17.5796 6.56221 8.77634
228 2 18.465 7.94538 8.89333
229 1 20.2893 3.36588 17.3492
230 2 21.0401 3.10392 17.8907
231 2 19.6131 2.73577 17.6439
232 1 23.4684 17.8344 0.862695
233 2 23.9255 17.7 1.71107
234 2 23.7955 18.6549 0.553894
235 1 24.6858 17.0685 3.46305
236 2 0.653926 17.7619 3.81112
237 2 23.7083 17.2312 3.66471
238 1 19.6729 1.3764 20.4257
239 2 19.8137 0.416042 20.4279
240 2 20.5362 1.84944 20.389
241 1 16.5471 8.89219 18.2962
242 2 16.1504 8.23678 18.9443
243 2 17.3111 9.33056 18.7473
244 1 8.959 11.5341 16.0257
245 2 9.84635 11.6258 15.6782
246 2 9.09491 10.7553 16.5707
247 1 1.83187 11.6077 18.1759
248 2 2.79002 11.8638 18.1985
249 2 1.73034 11.1793 19.074
250 1 12.8899 9.62854 16.0136
251 2 13.3821 8.84047 15.6692
252 2 13.4827 10.008 16.6707
253 1 12.4293 15.9414 23.4966
254 2 12.2551 15.8239 22.5359
255 2 13.3526 16.2303 23.6468
256 1 0.608891 23.246 20.975
257 2 0.549185 23.6779 20.0971
258 2 0.621025 22.2859 20.7695
259 1 13.091 5.88159 0.754841
260 2 13.3308 6.28845 24.4879
261 2 13.3327 4.94387 0.704549
262 1 4.04048 12.9157 9.3875
263 2 3.38138 12.2701 9.03744
264 2 4.82109 12.4009 9.45697
265 1 21.0565 22.3632 16.3599
266 2 20.6597 23.2449 16.4697
267 2 20.6862 21.8496 15.5946
268 1 0.46627 6.58741 0.636261
269 2 1.10462 6.69259 1.28334
270 2 0.89466 6.16275 24.4354
271 1 14.6451 7.32476 10.3291
272 2 14.7985 6.66995 9.65226
273 2 15.54 7.71993 10.5737
274 1 17.5022 14.2031 18.7793
275 2 17.4213 13.5427 18.0773
276 2 17.2649 13.6704 19.5485
277 1 18.2585 6.14425 21.354
278 2 18.1966 6.96093 21.8244
279 2 17.6397 6.08316 20.6283
280 1 13.7172 19.8356 7.68195
281 2 14.4969 20.4648 7.51589
282 2 12.9358 20.3766 7.46221
283 1 7.61539 6.17152 17.741
284 2 7.31935 6.36043 18.6395
285 2 8.5807 6.40624 17.8468
286 1 19.1452 10.7982 23.5098
287 2 19.1803 10.2288 24.298
288 2 18.4742 11.4761 23.8711
289 1 7.65777 6.9163 6.6542
290 2 6.77391 7.32902 6.71954
291 2 8.2087 7.66359 6.53868
292 1 0.415163 7.59879 20.828
293 2 0.527402 6.91615 20.0902
294 2 0.654038 7.13778 21.6504
295 1 2.01842 1.23072 7.04115
296 2 1.21111 0.912276 6.64633
297 2 2.63983 1.48346 6.32722
298 1 1.2573 5.86585 18.7234
299 2 0.619817 5.22611 18.4671
300 2 1.2291 6.35619 17.9052
301 1 8.02235 1.17799 1.16471
302 2 7.17217 1.23492 0.747978
303 2 8.08816 0.299639 1.55843
304 1 11.2152 19.3815 21.9892
305 2 11.8795 19.4527 22.667
306 2 11.1886 18.5278 21.5132
307 1 5.54823 6.16858 20.3886
308 2 5.13494 5.36424 19.95
309 2 5.05759 6.94433 20.1305
310 1 18.3641 12.3207 3.55084
311 2 17.8434 13.1049 3.79845
312 2 18.1195 11.5988 4.14223
313 1 8.26039 7.43977 10.8224
314 2 8.12772 7.33077 11.8254
315 2 7.53159 6.87194 10.5221
316 1 15.3229 3.85819 22.8402
317 2 14.9761 3.00815 23.1377
318 2 15.8373 4.13981 23.5603
319 1 18.5536 12.7983 7.70382
320 2 18.1848 13.1649 8.52895
321 2 19.0677 13.5442 7.34332
322 1 7.57833 6.84594 13.7926
323 2 6.89814 7.59677 13.8674
324 2 8.0947 7.16451 14.4943
325 1 19.7938 9.3492 1.21223
326 2 20.511 9.03383 0.6334
327 2 20.3049 9.62925 1.9792
328 1 21.3891 10.1995 3.59307
329 2 21.4595 10.9016 4.23963
330 2 20.8956 9.57555 4.16523
331 1 22.6822 12.3308 5.89479
332 2 23.4333 11.9718 6.45894
333 2 23.1056 12.691 5.09274
334 1 9.83823 3.65131 18.6715
335 2 10.2591 2.78359 18.8137
336 2 9.71268 3.58575 17.7197
337 1 22.9593 1.44045 20.7776
338 2 22.7043 0.528126 20.684
339 2 22.6641 1.57887 21.6916
340 1 0.69564 17.5457 14.9873
341 2 0.614611 17.7878 14.0356
342 2 1.47258 17.9245 15.3189
343 1 22.4261 14.9027 24.478
344 2 22.1503 14.0112 24.1676
345 2 23.2148 14.8462 0.436317
346 1 16.4726 12.1065 23.5546
347 2 15.7555 11.4933 23.5098
348 2 16.2058 12.5381 24.4191
349 1 21.0768 0.616251 14.2561
350 2 20.7074 0.220333 13.4866
351 2 20.3938 0.400703 14.968
352 1 20.1988 4.01376 5.64199
353 2 20.1652 4.52703 6.51489
354 2 20.4791 4.66758 4.97339
355 1 12.5328 9.99527 11.8202
356 2 12.9754 9.34543 12.3096
357 2 12.5283 9.65796 10.9549
358 1 6.84453 8.99469 2.23182
359 2 7.31555 8.75733 1.38811
360 2 7.51119 9.33792 2.8335
361 1 2.22662 15.8404 8.85229
362 2 1.61322 16.5137 8.59294
363 2 1.85856 15.6432 9.74417
364 1 21.529 5.23021 7.66089
365 2 21.7552 6.18164 7.73288
366 2 21.7288 4.86734 8.50469
367 1 1.92319 22.9936 7.69254
368 2 2.43291 23.8085 7.74186
369 2 2.49623 22.3995 7.11499
370 1 1.43161 9.63227 1.84671
371 2 0.646183 9.68078 2.45146
372 2 1.01496 9.70994 0.944544
373 1 12.2312 8.52286 6.35044
374 2 13.1062 8.52199 5.93191
375 2 12.0718 7.58084 6.50233
376 1 1.38615 14.9231 18.6451
377 2 0.493869 14.5241 18.8634
378 2 1.33201 15.3694 17.7933
379 1 4.55299 7.19237 23.0583
380 2 4.87897 6.64662 23.7676
381 2 5.03955 6.93046 22.256
382 1 14.9451 6.2149 17.9518
383 2 14.3124 6.36539 18.7012
384 2 14.5514 5.6111 17.3539
385 1 19.0634 13.7296 24.6459
386 2 18.6829 14.4565 0.583186
387 2 19.8766 13.504 0.43315
388 1 13.0512 3.32974 18.4269
389 2 13.339 3.3667 17.4825
390 2 12.4613 4.08518 18.4084
391 1 1.58065 5.96667 22.902
392 2 2.39623 6.45359 22.9589
393 2 1.79027 5.24041 22.3196
394 1 6.87338 19.8078 18.9327
395 2 7.18404 19.2441 18.1984
396 2 7.44053 20.6482 18.8481
397 1 4.77362 0.533287 2.80955
398 2 4.40145 0.772314 3.63901
399 2 5.13384 1.37261 2.46946
400 1 2.16838 22.5529 23.142
401 2 1.82684 23.0984 22.3492
402 2 2.95663 23.0747 23.5079
403 1 16.8936 5.26692 0.475488
404 2 17.0912 6.17602 0.739162
405 2 17.7061 4.94676 24.6371
406 1 9.46842 16.9047 17.4093
407 2 9.95883 16.1335 17.1006
408 2 9.86727 16.9816 18.2466
409 1 12.053 11.3934 7.03508
410 2 12.8622 11.1898 6.51737
411 2 11.7461 10.5254 7.22907
412 1 0.512018 7.71441 16.5618
413 2 1.38272 7.6319 16.1007
414 2 0.242722 8.64607 16.5755
415 1 21.2849 6.61806 10.5367
416 2 20.5995 7.18555 10.2247
417 2 21.719 7.06702 11.3053
418 1 12.5172 9.98323 1.28018
419 2 11.7974 9.40795 1.0054
420 2 13.1424 9.44764 1.84011
421 1 12.9045 23.5639 11.4463
422 2 13.4564 24.291 10.902
423 2 12.7094 22.8476 10.8884
424 1 9.3971 1.49324 21.2717
425 2 10.119 2.00035 20.9466
426 2 8.75385 2.17878 20.9648
427 1 14.7602 5.36693 8.67947
428 2 15.6609 5.07777 8.35572
429 2 14.1087 4.79585 8.1632
430 1 1.4903 16.4578 20.9743
431 2 1.55548 15.7319 21.6014
432 2 1.6429 16.1173 20.0423
433 1 11.2708 13.9766 7.99759
434 2 11.569 13.0694 7.75822
435 2 11.8098 14.3126 8.75907
436 1 14.4372 22.6453 5.03445
437 2 13.5217 22.6929 4.77298
438 2 15.0097 23.0377 4.35702
439 1 10.0353 2.31458 10.2182
440 2 9.11287 2.65799 10.4657
441 2 10.2071 1.59872 10.8771
442 1 12.5353 5.99164 3.95451
443 2 12.0732 6.06073 4.79245
444 2 12.0342 6.70438 3.49564
445 1 1.42505 3.86762 10.7129
446 2 1.35549 3.62334 11.628
447 2 1.14508 4.76397 10.763
448 1 23.7865 20.9393 11.8236
449 2 22.9426 20.7537 11.369
450 2 23.4899 21.4203 12.6292
451 1 13.8194 19.7766 23.6007
452 2 14.0704 19.0006 24.1324
453 2 13.4142 20.5095 24.124
454 1 11.8134 24.3795 6.72148
455 2 11.9882 23.682 7.40184
456 2 11.0268 24.1445 6.20924
457 1 16.647 13.6334 21.3813
458 2 16.5056 13.2637 22.3105
459 2 17.1089 14.4761 21.5891
460 1 7.64187 4.0874 14.203
461 2 7.94717 4.98438 13.8043
462 2 7.24547 4.18794 15.1048
463 1 23.9447 23.9858 23.4055
464 2 22.9565 24.1579 23.4663
465 2 24.1693 23.7022 22.5175
466 1 19.3033 16.0259 19.6964
467 2 20.2146 15.8619 19.5983
468 2 18.8728 15.3422 19.1345
469 1 4.79479 18.6994 6.31683
470 2 5.49094 18.4963 6.88446
471 2 4.67011 17.9823 5.6931
472 1 0.401664 4.31755 2.45209
473 2 1.0325 4.66143 3.14922
474 2 24.7965 5.07925 1.89175
475 1 17.7194 22.0628 24.6906
476 2 18.3876 22.8137 24.6879
477 2 16.9613 22.5253 0.526012
478 1 9.96825 9.0702 13.7084
479 2 10.1551 9.61119 12.9699
480 2 8.96536 9.01429 13.776
481 1 24.6478 17.8577 12.1111
482 2 24.0579 18.6711 12.1662
483 2 24.1096 17.326 11.5237
484 1 21.1293 5.86135 3.96892
485 2 20.7439 5.54807 3.12372
486 2 20.6432 6.65454 4.22834
487 1 14.8686 17.5531 11.6634
488 2 15.7891 17.8588 11.7642
489 2 14.9425 16.584 11.7612
490 1 1.72601 18.9367 24.2111
491 2 1.36083 19.7772 23.9792
492 2 2.65463 19.1596 24.3847
493 1 20.5343 24.1441 5.9224
494 2 20.6045 0.322533 5.3459
495 2 19.7597 23.6907 5.55957
496 1 3.9296 1.81445 5.08604
497 2 4.44489 1.32527 5.88147
498 2 4.06434 2.71794 5.2351
499 1 23.4611 2.75055 16.4783
500 2 23.1727 1.7937 16.6694
501 2 23.3135 3.18846 17.3752
502 1 3.00128 7.69657 2.23892
503 2 2.46285 8.51376 1.90185
504 2 3.48608 7.20529 1.59765
505 1 11.8985 3.18004 3.46671
506 2 11.7715 3.04533 2.53643
507 2 12.2789 4.05228 3.62165
508 1 4.8951 20.3172 16.7444
509 2 5.26958 20.7981 15.9093
510 2 5.71262 20.2708 17.3988
511 1 10.1225 0.731802 4.7445
512 2 10.5191 1.4138 4.15758
513 2 9.73649 24.6518 4.24933
514 1 10.4043 21.3086 18.1563
515 2 9.45379 21.4485 18.379
516 2 11.0387 21.9486 18.577
517 1 17.555 11.0336 5.77961
518 2 17.3641 10.331 6.45136
519 2 17.9506 11.7502 6.29753
520 1 9.65953 21.2071 10.5781
521 2 9.19415 21.5894 11.3213
522 2 9.28425 20.36 10.4428
523 1 21.5093 10.5313 10.2222
524 2 20.9102 10.9336 10.9062
525 2 21.7526 11.2816 9.69155
526 1 14.7204 9.34432 2.83673
527 2 15.0532 8.61536 2.3498
528 2 14.59 8.99942 3.73378
529 1 24.7656 1.54927 1.67708
530 2 24.3083 2.3526 1.88419
531 2 24.4121 1.22198 0.850623
532 1 3.07469 6.0799 8.94833
533 2 2.68695 5.33135 8.47105
534 2 3.66399 6.54623 8.37796
535 1 6.47774 2.35483 12.5488
536 2 6.77206 2.89212 13.3113
537 2 5.52916 2.47668 12.7051
538 1 23.0292 21.564 14.6444
539 2 23.9408 21.5992 14.9928
540 2 22.4478 22.037 15.2613
541 1 4.62508 11.9925 16.3576
542 2 4.44982 12.6187 17.0484
543 2 3.81218 12.1386 15.7965
544 1 4.01318 12.7629 12.5116
545 2 5.01971 12.6778 12.5188
546 2 3.83801 12.7412 11.5454
547 1 10.6251 12.0546 4.47762
548 2 9.8804 12.4971 4.91695
549 2 11.1574 11.893 5.27013
550 1 17.5749 17.7965 11.9638
551 2 18.2702 17.7551 12.6102
552 2 17.9344 17.2951 11.1566
553 1 22.6988 3.3419 18.8777
554 2 22.9282 2.58519 19.455
555 2 22.4596 4.15329 19.3799
556 1 16.9798 19.6977 15.6596
557 2 16.0169 19.4906 15.4217
558 2 17.1657 19.2318 16.4618
559 1 20.3498 19.6695 19.2422
560 2 21.2652 19.7318 19.5186
561 2 20.281 19.1432 18.4035
562 1 2.40712 0.303658 1.35447
563 2 3.08524 0.462452 2.04555
564 2 1.73354 1.04786 1.54657
565 1 17.9495 14.3343 11.6188
566 2 17.3398 13.8204 12.168
567 2 17.47 14.7867 10.9341
568 1 7.70578 24.114 20.5379
569 2 7.48965 23.3907 21.2172
570 2 8.49715 24.6843 20.7652
571 1 7.26154 21.6004 3.42713
572 2 7.83906 20.8019 3.47591
573 2 7.0535 21.8846 4.35602
574 1 16.5351 22.9858 18.926
575 2 15.6431 22.687 18.6168
576 2 17.3066 22.8058 18.3631
577 1 21.2999 16.6203 13.2972
578 2 20.445 16.2742 13.533
579 2 21.5607 17.3692 13.8369
580 1 12.5239 3.1589 24.2469
581 2 11.6122 3.08497 24.6237
582 2 12.6614 2.25179 23.9307
583 1 21.3911 24.7457 23.3873
584 2 20.5982 24.3919 23.8283
585 2 21.6002 1.07275 23.8052
586 1 19.7699 15.099 7.41267
587 2 19.3663 15.4069 8.22123
588 2 20.7454 15.3275 7.39592
589 1 5.44293 9.88045 23.129
590 2 5.03588 9.03346 23.0568
591 2 4.83034 10.4599 22.6082
592 1 5.71875 14.0848 14.3085
593 2 5.87368 14.7518 15.0199
594 2 5.31777 14.6243 13.5857
595 1 20.9213 21.8826 22.7033
596 2 20.9477 22.2825 23.6154
597 2 20.1964 21.2335 22.7481
598 1 20.0844 15.1726 16.8634
599 2 19.9563 15.155 15.8863
600 2 20.8834 14.6682 16.9226
601 1 14.4935 21.071 15.5365
602 2 13.5694 20.696 15.5181
603 2 14.2515 22.022 15.3721
604 1 2.03128 15.4461 12.0578
605 2 1.51741 16.215 12.2633
606 2 1.46474 14.6682 12.1171
607 1 17.8124 1.73102 22.6397
608 2 18.2871 1.41737 21.8456
609 2 17.9365 2.75673 22.6398
610 1 13.1849 17.0343 4.95824
611 2 12.8097 16.5879 5.75642
612 2 13.0275 16.3933 4.18271
613 1 3.40861 18.1625 17.0116
614 2 3.79773 17.3136 17.3575
615 2 4.11415 18.8417 16.9419
616 1 21.2078 18.305 9.41661
617 2 21.6026 17.5303 9.94568
618 2 21.0492 18.9629 10.1074
619 1 4.3636 12.2826 21.2567
620 2 5.15537 11.8007 21.0437
621 2 4.54795 12.5836 22.1529
622 1 6.80479 17.7928 4.36675
623 2 6.75678 17.9583 5.31687
624 2 6.09829 18.3399 3.86544
625 1 0.224431 13.3937 12.0612
626 2 24.3527 13.3956 12.9355
627 2 24.2114 13.8073 11.3611
628 1 7.00308 15.2295 16.8698
629 2 7.25867 14.4283 17.3654
630 2 7.64664 15.9035 17.1066
631 1 7.3478 14.9907 10.6987
632 2 6.49392 15.252 10.2885
633 2 7.28883 14.0933 11.1527
634 1 13.9823 10.6953 23.7572
635 2 13.503 10.6315 22.9166
636 2 13.3909 10.5351 24.5127
637 1 8.48167 14.6585 8.30484
638 2 8.33827 14.8087 9.27718
639 2 9.39462 14.4329 8.33666
640 1 14.2402 5.27904 12.2278
641 2 14.4096 5.87552 11.5196
642 2 14.2118 5.93247 13.0135
643 1 19.4855 11.7917 12.0413
644 2 18.7395 12.3942 11.8298
645 2 19.2141 11.3816 12.8386
646 1 11.233 17.7456 9.366
647 2 11.6073 18.6216 9.48191
648 2 10.4407 17.73 10.0323
649 1 21.6617 12.7681 8.59887
650 2 21.7681 12.7896 7.65831
651 2 20.6863 12.964 8.67884
652 1 14.6989 14.8556 11.7721
653 2 13.9836 14.6159 11.1445
654 2 14.8484 14.0959 12.3014
655 1 0.879911 6.1946 12.5119
656 2 1.76143 5.76825 12.7175
657 2 1.07265 7.07951 12.3034
658 1 20.9547 5.90244 24.2369
659 2 21.0959 6.83494 24.4701
660 2 21.8938 5.56279 24.007
661 1 4.33871 19.9191 12.3794
662 2 4.02045 20.7492 12.8758
663 2 5.2444 19.8979 12.6001
664 1 12.7016 15.2748 9.92388
665 2 11.9335 15.6956 10.3627
666 2 13.1958 16.0781 9.58989
667 1 5.08842 22.6562 1.76414
668 2 5.08333 23.6123 2.10112
669 2 5.89177 22.2921 2.15485
670 1 0.840022 19.9564 19.9873
671 2 24.5776 19.8432 20.3384
672 2 1.44526 19.4894 20.5711
673 1 7.4076 24.2694 12.8956
674 2 6.85206 0.428806 12.8064
675 2 7.50902 23.8795 12.0519
676 1 16.6935 19.5806 24.6941
677 2 16.589 19.2923 23.7831
678 2 17.1552 20.4234 24.5659
679 1 20.7073 1.98021 4.16891
680 2 19.9018 1.96771 3.64928
681 2 20.5304 2.67767 4.8319
682 1 14.442 10.5868 17.9525
683 2 14.6249 11.2214 18.6361
684 2 15.2919 9.97473 18.0174
685 1 22.645 21.8819 3.99769
686 2 22.817 21.9117 4.92092
687 2 21.7994 22.3053 3.78188
688 1 4.48618 9.06331 16.3805
689 2 4.36213 10.0313 16.1674
690 2 4.82922 9.06314 17.3732
691 1 6.36071 5.39906 9.63443
692 2 6.89281 4.62294 9.8856
693 2 5.73981 5.52707 10.3618
694 1 19.4172 16.4514 4.98479
695 2 20.3905 16.6082 4.77032
696 2 19.3482 15.9055 5.86292
697 1 20.0601 18.5179 23.4469
698 2 20.4506 17.6561 22.9736
699 2 19.6017 18.9843 22.6846
700 1 19.4247 24.4864 16.1543
701 2 19.1774 0.487576 16.9482
702 2 18.6269 23.8853 15.8604
703 1 15.9735 18.4451 2.57839
704 2 16.1474 18.9307 1.80696
705 2 15.3084 18.9954 3.11069
706 1 4.24732 18.0408 14.4524
707 2 3.76331 18.2362 15.2602
708 2 3.85046 18.5146 13.731
709 1 16.8363 20.4362 12.576
710 2 17.2781 19.6547 12.197
711 2 17.2057 20.5229 13.4836
712 1 11.8431 6.06398 6.80553
713 2 12.2752 5.1279 6.88758
714 2 10.8416 5.83592 7.05586
715 1 13.9007 19.7495 4.44583
716 2 14.3349 20.1906 5.1361
717 2 13.6593 18.9091 4.79121
718 1 15.4023 23.4038 0.956503
719 2 15.5701 24.2523 0.341402
720 2 15.6189 23.6203 1.88356
721 1 6.90365 15.7862 0.993951
722 2 6.97094 16.479 0.289249
723 2 7.7557 15.8405 1.48015
724 1 17.6821 22.4665 15.2955
725 2 17.4251 21.5574 15.5385
726 2 16.9882 23.1368 15.0913
727 1 21.9031 11.1955 20.9909
728 2 22.0429 10.9743 20.0435
729 2 21.9673 10.3055 21.3969
730 1 23.052 1.35146 5.99847
731 2 22.3883 1.18441 6.6546
732 2 22.8206 1.01645 5.08108
733 1 14.1198 0.745213 21.4972
734 2 14.8353 0.93654 20.8994
735 2 13.2916 0.757293 21.0835
736 1 22.3489 23.2694 18.8447
737 2 22.4091 22.8153 18.0068
738 2 23.0942 23.9665 18.7058
739 1 12.6789 17.7689 16.1374
740 2 12.3541 18.7052 16.2188
741 2 12.3784 17.4696 15.2838
742 1 24.196 10.704 10.7565
743 2 23.23 10.5349 10.764
744 2 24.3454 11.5664 11.2067
745 1 1.7402 2.17274 15.7352
746 2 1.81709 2.49535 14.8255
747 2 0.768118 2.2313 15.9495
748 1 13.0635 3.74627 7.40831
749 2 13.2669 3.17371 6.5898
750 2 12.3643 3.32737 7.88742
751 1 0.29599 14.6656 1.95535
752 2 0.258332 15.443 2.64008
753 2 24.1728 14.111 2.33957
754 1 16.1001 23.9513 3.49138
755 2 16.9515 23.6943 3.87401
756 2 16.0826 0.349448 3.34115
757 1 16.4883 1.09942 11.9667
758 2 16.4599 2.05721 12.2687
759 2 15.705 0.982876 11.3727
760 1 14.7164 12.2762 15.5387
761 2 14.541 13.0965 16.0624
762 2 14.4327 11.5867 16.1589
763 1 12.5071 20.187 19.6216
764 2 12.2535 19.9903 20.5087
765 2 11.7176 20.147 19.055
766 1 5.05005 16.1023 9.82517
767 2 4.69135 16.0659 10.7369
768 2 4.27903 15.8827 9.30688
769 1 20.5148 9.39925 13.7459
770 2 20.1867 8.71898 14.4037
771 2 20.8237 10.1226 14.32
772 1 6.95087 1.68906 17.2188
773 2 7.58763 1.02933 16.9888
774 2 7.25895 2.54838 16.878
775 1 24.4723 23.2521 1.784
776 2 0.522468 23.9617 1.89129
777 2 24.6686 22.6837 1.07431
778 1 5.78539 3.30187 2.28614
779 2 6.75212 3.54329 2.25272
780 2 5.40802 3.69684 3.09239
781 1 23.087 12.9734 3.10813
782 2 23.049 12.3091 2.35365
783 2 22.1141 13.1054 3.17997
784 1 24.1518 0.71883 12.0217
785 2 23.3348 0.977556 11.5594
786 2 24.4626 24.5084 11.6442
787 1 15.6777 15.073 1.55233
788 2 15.6046 14.1367 1.623
789 2 16.406 15.3081 2.2082
790 1 20.7425 15.8814 2.0111
791 2 19.9095 16.2042 1.67483
792 2 21.4654 15.9183 1.33363
793 1 4.76512 24.7658 6.77897
794 2 5.37465 24.1735 6.29231
795 2 5.34739 0.535167 7.42831
796 1 17.6331 5.62877 3.32317
797 2 16.7586 5.72543 2.93432
798 2 17.4875 5.07796 4.10554
799 1 2.96708 6.48647 15.7125
800 2 3.60468 7.22681 15.9605
801 2 3.22527 5.71359 16.276
802 1 20.5487 24.2693 1.98331
803 2 21.2778 24.6872 2.53337
804 2 20.9041 23.4815 1.56537
805 1 8.31125 16.2356 21.4749
806 2 7.71497 16.7155 20.859
807 2 8.16159 16.5165 22.3852
808 1 8.23438 15.2712 14.0262
809 2 7.45633 14.6949 14.0403
810 2 7.70702 16.167 14.082
811 1 17.8184 6.831 11.9562
812 2 17.4684 7.75155 12.122
813 2 17.8914 6.8505 10.9481
814 1 15.2376 20.6314 21.3796
815 2 15.8954 21.4023 21.5116
816 2 15.1555 20.2036 22.2812
817 1 16.7126 15.771 16.1381
818 2 17.2499 16.3267 16.6781
819 2 16.3168 16.4804 15.5709
820 1 15.0727 5.18743 15.3843
821 2 14.7676 6.06002 15.0945
822 2 16.0105 5.39165 15.5437
823 1 1.62907 20.1842 17.4531
824 2 1.09722 19.9548 18.1775
825 2 2.01645 19.3427 17.1194
826 1 2.114 12.2691 3.0117
827 2 2.00207 11.4438 2.59423
828 2 1.74012 12.9244 2.4447
829 1 15.9373 24.4632 14.809
830 2 15.0669 24.1287 14.5137
831 2 16.1827 0.290559 13.9542
832 1 6.96191 19.302 12.1023
833 2 7.18358 19.1513 11.1508
834 2 7.28999 18.5636 12.6102
835 1 15.6487 9.97879 13.947
836 2 15.3498 10.7707 14.324
837 2 16.1319 9.43211 14.5474
838 1 10.8173 17.0505 20.4524
839 2 9.92119 16.8599 20.8825
840 2 11.1285 16.2517 19.9809
841 1 13.9433 20.5817 12.2661
842 2 14.8324 20.1676 12.486
843 2 13.545 20.9027 13.063
844 1 9.72438 19.7828 2.96447
845 2 9.87705 18.8773 2.51089
846 2 10.455 19.94 3.50267
847 1 18.6375 16.7274 9.52406
848 2 19.4042 17.3634 9.44504
849 2 18.0565 17.085 8.83168
850 1 24.1063 10.0089 3.87943
851 2 24.0412 9.271 4.52557
852 2 23.2141 10.235 3.57009
853 1 4.93631 10.9058 1.3886
854 2 4.64825 10.6959 0.445569
855 2 5.49825 10.1842 1.62872
856 1 15.9105 15.8542 5.25265
857 2 16.331 16.4639 5.86986
858 2 15.0883 16.2154 4.98641
859 1 10.4229 7.61837 2.80174
860 2 10.0493 6.7279 2.88675
861 2 10.7722 7.89635 1.95438
862 1 0.81638 13.967 22.5668
863 2 1.15736 13.4142 23.3074
864 2 0.493301 14.667 23.162
865 1 16.1896 18.6007 19.7639
866 2 15.629 19.4064 19.9429
867 2 15.4996 18.0079 19.3724
868 1 14.5208 11.2324 5.65743
869 2 15.5088 11.1847 5.60131
870 2 14.2067 11.7785 4.92679
871 1 20.7996 20.4078 11.1934
872 2 20.8213 20.3413 12.1595
873 2 20.4397 21.3031 11.0985
874 1 10.5434 16.7306 6.68361
875 2 10.8628 17.2714 7.42877
876 2 10.5618 15.786 6.94585
877 1 19.0461 15.3478 14.0351
878 2 18.7071 15.0229 13.161
879 2 18.2803 15.5917 14.5732
880 1 11.6836 21.805 3.99707
881 2 12.3548 21.085 4.07646
882 2 11.5995 22.0449 3.05857
883 1 19.6748 5.03664 1.78281
884 2 18.8272 5.44838 2.17137
885 2 20.147 5.50272 1.05126
886 1 4.74898 7.49944 7.1311
887 2 4.42347 8.27538 7.63638
888 2 4.36392 7.74386 6.22362
889 1 18.6264 19.876 21.5369
890 2 19.1855 19.8096 20.7178
891 2 18.0335 19.1856 21.4045
892 1 10.2502 12.5965 12.1433
893 2 9.32564 12.3763 12.1112
894 2 10.6198 12.1804 11.3581
895 1 3.43188 16.1003 4.78532
896 2 3.64111 15.378 5.43938
897 2 3.62848 15.6125 3.95617
898 1 22.2637 8.18841 7.44981
899 2 22.8331 8.84053 7.82682
900 2 22.6296 7.97479 6.58525
901 1 7.36996 15.1263 3.95246
902 2 6.79843 15.939 4.14242
903 2 6.82002 14.5089 3.43412
904 1 17.8358 17.6812 17.7486
905 2 18.2644 16.9008 18.199
906 2 17.3896 18.2285 18.4482
907 1 15.5665 17.8337 14.3687
908 2 14.7866 17.948 14.9686
909 2 15.19 17.5277 13.5175
910 1 22.5646 10.544 18.6278
911 2 23.3311 10.6556 17.9889
912 2 21.9265 10.1195 17.9859
913 1 24.0912 20.3257 2.32171
914 2 24.5248 20.6088 1.53554
915 2 23.7337 21.1469 2.77934
916 1 15.708 21.7788 7.43883
917 2 16.6425 21.7575 7.07191
918 2 15.2203 22.0832 6.57114
919 1 6.47323 11.0508 20.1556
920 2 7.16199 11.1039 20.8169
921 2 6.75228 11.6642 19.4214
922 1 1.7815 9.71755 20.2591
923 2 1.14058 8.95915 20.462
924 2 2.15759 9.85516 21.1238
925 1 9.29632 21.1619 7.39995
926 2 9.36804 20.2592 6.91355
927 2 8.87999 20.9856 8.25622
928 1 15.5586 8.55263 23.8245
929 2 15.0469 9.29321 23.8826
930 2 14.9782 8.00235 23.3736
931 1 23.6812 6.10482 14.7565
932 2 24.4472 6.25533 14.1434
933 2 23.8866 6.52294 15.6396
934 1 18.276 4.11483 10.321
935 2 19.2854 4.02362 10.3469
936 2 17.8518 3.96331 11.1664
937 1 2.95891 22.4778 17.5535
938 2 3.17665 22.7452 18.4569
939 2 2.61773 21.5286 17.4903
940 1 3.78939 13.5355 18.951
941 2 3.76393 13.2128 19.8794
942 2 2.91215 13.9402 18.6996
943 1 4.96318 0.91948 15.4731
944 2 4.64425 24.629 15.4836
945 2 5.4432 1.27629 16.2597
946 1 22.3183 3.15311 2.57419
947 2 21.8781 2.82699 3.40147
948 2 22.8819 3.80643 2.9641
949 1 13.1826 2.86435 11.2531
950 2 12.586 3.28389 10.594
951 2 13.4926 3.65298 11.6736
952 1 3.60539 8.46202 4.73646
953 2 3.61196 8.2085 3.79974
954 2 3.8405 9.42933 4.74355
955 1 22.0533 8.7334 24.4324
956 2 22.8793 8.45283 0.284544
957 2 22.3024 8.69045 23.4546
958 1 2.41107 4.09549 0.333974
959 2 2.74122 4.97712 0.487151
960 2 1.79091 3.93535 1.15407
961 1 22.7493 4.15632 23.3596
962 2 22.0541 3.59532 23.8421
963 2 23.5251 3.63233 23.14
964 1 24.2434 23.3608 6.042
965 2 24.0272 24.3549 5.91722
966 2 0.588266 23.4128 6.20146
967 1 8.81106 5.3283 2.32328
968 2 8.694 5.34041 3.27839
969 2 8.15979 5.92042 1.9066
970 1 14.2177 12.7453 20.5171
971 2 15.1283 13.0629 20.605
972 2 13.6645 13.4359 20.1876
973 1 11.0783 12.7599 18.481
974 2 10.6368 13.2181 17.7519
975 2 10.5248 13.0616 19.2055
976 1 11.6444 4.62377 14.726
977 2 10.8549 3.96127 14.787
978 2 11.8108 5.02725 13.8587
979 1 22.1079 13.2484 17.3742
980 2 22.0809 12.8086 18.1614
981 2 21.5727 12.7475 16.6942
982 1 1.24062 1.81579 20.2867
983 2 2.07765 1.37854 20.7624
984 2 0.522099 1.78955 20.886
985 1 21.7783 1.2608 8.1943
986 2 21.3002 2.00685 8.51924
987 2 21.546 0.394406 8.54446
988 1 7.65495 10.4566 7.79301
989 2 8.41298 9.91342 7.94722
990 2 7.59618 10.9428 7.00312
991 1 18.4888 4.12413 22.9944
992 2 18.3525 4.84762 22.3473
993 2 19.3819 4.17097 23.3308
994 1 22.979 24.7887 3.49385
995 2 23.1468 23.8425 3.53491
996 2 23.6148 0.399899 2.78338
997 1 18.1628 21.3496 6.18288
998 2 18.2546 21.4631 5.23645
999 2 18.7019 20.5469 6.44121
1000 1 10.6785 15.4721 12.6476
1001 2 10.1773 15.5509 13.4396